phonopy:
  version: 2.17.1
  frequency_unit_conversion_factor: 15.633302
  symmetry_tolerance: 1.00000e-05
  configuration:
    save_params: ".true."

physical_unit:
  atomic_mass: "AMU"
  length: "angstrom"
  force_constants: "eV/angstrom^2"

space_group:
  type: "P4_2/n"
  number: 86
  Hall_symbol: "P 4n -1n"

supercell_matrix:
- [   1,   0,   0 ]
- [   0,   1,   0 ]
- [   0,   0,   2 ]

primitive_cell:
  lattice:
  - [     9.384924070000000,    -0.000000120000000,     0.000000000000000 ] # a
  - [     0.000000120000000,     9.384924070000000,     0.000000000000000 ] # b
  - [     0.000000000000000,     0.000000000000000,     6.237893930000000 ] # c
  points:
  - symbol: Li # 1
    coordinates: [  0.169028580000000,  0.994527070000000,  0.157169330000000 ]
    mass: 6.941000
  - symbol: Li # 2
    coordinates: [  0.505472930000000,  0.669028580000000,  0.657169330000000 ]
    mass: 6.941000
  - symbol: Li # 3
    coordinates: [  0.494527070000000,  0.330971420000000,  0.657169330000000 ]
    mass: 6.941000
  - symbol: Li # 4
    coordinates: [  0.830971420000000,  0.005472930000000,  0.157169330000000 ]
    mass: 6.941000
  - symbol: Li # 5
    coordinates: [  0.330971420000000,  0.505472930000000,  0.342830670000000 ]
    mass: 6.941000
  - symbol: Li # 6
    coordinates: [  0.994527070000000,  0.830971420000000,  0.842830670000000 ]
    mass: 6.941000
  - symbol: Li # 7
    coordinates: [  0.005472930000000,  0.169028580000000,  0.842830670000000 ]
    mass: 6.941000
  - symbol: Li # 8
    coordinates: [  0.669028580000000,  0.494527070000000,  0.342830670000000 ]
    mass: 6.941000
  - symbol: O  # 9
    coordinates: [  0.198245260000000,  0.108051750000000,  0.425173990000000 ]
    mass: 15.999400
  - symbol: O  # 10
    coordinates: [  0.108051750000000,  0.801754740000000,  0.574826010000000 ]
    mass: 15.999400
  - symbol: O  # 11
    coordinates: [  0.698245260000000,  0.608051750000000,  0.074826010000000 ]
    mass: 15.999400
  - symbol: O  # 12
    coordinates: [  0.301754740000000,  0.391948250000000,  0.074826010000000 ]
    mass: 15.999400
  - symbol: O  # 13
    coordinates: [  0.891948250000000,  0.198245260000000,  0.574826010000000 ]
    mass: 15.999400
  - symbol: O  # 14
    coordinates: [  0.391948250000000,  0.698245260000000,  0.925173990000000 ]
    mass: 15.999400
  - symbol: O  # 15
    coordinates: [  0.801754740000000,  0.891948250000000,  0.425173990000000 ]
    mass: 15.999400
  - symbol: O  # 16
    coordinates: [  0.921479570000000,  0.634387520000000,  0.785416360000000 ]
    mass: 15.999400
  - symbol: O  # 17
    coordinates: [  0.578520430000000,  0.865612480000000,  0.714583640000000 ]
    mass: 15.999400
  - symbol: O  # 18
    coordinates: [  0.634387520000000,  0.078520430000000,  0.214583640000000 ]
    mass: 15.999400
  - symbol: O  # 19
    coordinates: [  0.365612480000000,  0.921479570000000,  0.214583640000000 ]
    mass: 15.999400
  - symbol: O  # 20
    coordinates: [  0.421479570000000,  0.134387520000000,  0.714583640000000 ]
    mass: 15.999400
  - symbol: O  # 21
    coordinates: [  0.839687080000000,  0.971027350000000,  0.850079160000000 ]
    mass: 15.999400
  - symbol: O  # 22
    coordinates: [  0.865612480000000,  0.421479570000000,  0.285416360000000 ]
    mass: 15.999400
  - symbol: O  # 23
    coordinates: [  0.134387520000000,  0.578520430000000,  0.285416360000000 ]
    mass: 15.999400
  - symbol: O  # 24
    coordinates: [  0.078520430000000,  0.365612480000000,  0.785416360000000 ]
    mass: 15.999400
  - symbol: O  # 25
    coordinates: [  0.339687080000000,  0.471027350000000,  0.649920840000000 ]
    mass: 15.999400
  - symbol: O  # 26
    coordinates: [  0.528972650000000,  0.339687080000000,  0.350079160000000 ]
    mass: 15.999400
  - symbol: O  # 27
    coordinates: [  0.471027350000000,  0.660312920000000,  0.350079160000000 ]
    mass: 15.999400
  - symbol: O  # 28
    coordinates: [  0.160312920000000,  0.028972650000000,  0.850079160000000 ]
    mass: 15.999400
  - symbol: O  # 29
    coordinates: [  0.660312920000000,  0.528972650000000,  0.649920840000000 ]
    mass: 15.999400
  - symbol: O  # 30
    coordinates: [  0.971027350000000,  0.160312920000000,  0.149920840000000 ]
    mass: 15.999400
  - symbol: O  # 31
    coordinates: [  0.028972650000000,  0.839687080000000,  0.149920840000000 ]
    mass: 15.999400
  - symbol: O  # 32
    coordinates: [  0.608051750000000,  0.301754740000000,  0.925173990000000 ]
    mass: 15.999400
  - symbol: I  # 33
    coordinates: [  0.787833590000000,  0.503468610000000,  0.867447870000000 ]
    mass: 126.904470
  - symbol: I  # 34
    coordinates: [  0.287833590000000,  0.003468610000000,  0.632552130000000 ]
    mass: 126.904470
  - symbol: I  # 35
    coordinates: [  0.496531390000000,  0.787833590000000,  0.132552130000000 ]
    mass: 126.904470
  - symbol: I  # 36
    coordinates: [  0.503468610000000,  0.212166410000000,  0.132552130000000 ]
    mass: 126.904470
  - symbol: I  # 37
    coordinates: [  0.712166410000000,  0.996531390000000,  0.632552130000000 ]
    mass: 126.904470
  - symbol: I  # 38
    coordinates: [  0.212166410000000,  0.496531390000000,  0.867447870000000 ]
    mass: 126.904470
  - symbol: I  # 39
    coordinates: [  0.003468610000000,  0.712166410000000,  0.367447870000000 ]
    mass: 126.904470
  - symbol: I  # 40
    coordinates: [  0.996531390000000,  0.287833590000000,  0.367447870000000 ]
    mass: 126.904470
  reciprocal_lattice: # without 2pi
  - [     0.106553872204104,    -0.000000001362447,     0.000000000000000 ] # a*
  - [     0.000000001362447,     0.106553872204104,     0.000000000000000 ] # b*
  - [     0.000000000000000,     0.000000000000000,     0.160310516854204 ] # c*

unit_cell:
  lattice:
  - [     9.384924070000000,    -0.000000120000000,     0.000000000000000 ] # a
  - [     0.000000120000000,     9.384924070000000,     0.000000000000000 ] # b
  - [     0.000000000000000,     0.000000000000000,     6.237893930000000 ] # c
  points:
  - symbol: Li # 1
    coordinates: [  0.169028580000000,  0.994527070000000,  0.157169330000000 ]
    mass: 6.941000
    reduced_to: 1
  - symbol: Li # 2
    coordinates: [  0.505472930000000,  0.669028580000000,  0.657169330000000 ]
    mass: 6.941000
    reduced_to: 2
  - symbol: Li # 3
    coordinates: [  0.494527070000000,  0.330971420000000,  0.657169330000000 ]
    mass: 6.941000
    reduced_to: 3
  - symbol: Li # 4
    coordinates: [  0.830971420000000,  0.005472930000000,  0.157169330000000 ]
    mass: 6.941000
    reduced_to: 4
  - symbol: Li # 5
    coordinates: [  0.330971420000000,  0.505472930000000,  0.342830670000000 ]
    mass: 6.941000
    reduced_to: 5
  - symbol: Li # 6
    coordinates: [  0.994527070000000,  0.830971420000000,  0.842830670000000 ]
    mass: 6.941000
    reduced_to: 6
  - symbol: Li # 7
    coordinates: [  0.005472930000000,  0.169028580000000,  0.842830670000000 ]
    mass: 6.941000
    reduced_to: 7
  - symbol: Li # 8
    coordinates: [  0.669028580000000,  0.494527070000000,  0.342830670000000 ]
    mass: 6.941000
    reduced_to: 8
  - symbol: O  # 9
    coordinates: [  0.198245260000000,  0.108051750000000,  0.425173990000000 ]
    mass: 15.999400
    reduced_to: 9
  - symbol: O  # 10
    coordinates: [  0.108051750000000,  0.801754740000000,  0.574826010000000 ]
    mass: 15.999400
    reduced_to: 10
  - symbol: O  # 11
    coordinates: [  0.698245260000000,  0.608051750000000,  0.074826010000000 ]
    mass: 15.999400
    reduced_to: 11
  - symbol: O  # 12
    coordinates: [  0.301754740000000,  0.391948250000000,  0.074826010000000 ]
    mass: 15.999400
    reduced_to: 12
  - symbol: O  # 13
    coordinates: [  0.891948250000000,  0.198245260000000,  0.574826010000000 ]
    mass: 15.999400
    reduced_to: 13
  - symbol: O  # 14
    coordinates: [  0.391948250000000,  0.698245260000000,  0.925173990000000 ]
    mass: 15.999400
    reduced_to: 14
  - symbol: O  # 15
    coordinates: [  0.801754740000000,  0.891948250000000,  0.425173990000000 ]
    mass: 15.999400
    reduced_to: 15
  - symbol: O  # 16
    coordinates: [  0.921479570000000,  0.634387520000000,  0.785416360000000 ]
    mass: 15.999400
    reduced_to: 16
  - symbol: O  # 17
    coordinates: [  0.578520430000000,  0.865612480000000,  0.714583640000000 ]
    mass: 15.999400
    reduced_to: 17
  - symbol: O  # 18
    coordinates: [  0.634387520000000,  0.078520430000000,  0.214583640000000 ]
    mass: 15.999400
    reduced_to: 18
  - symbol: O  # 19
    coordinates: [  0.365612480000000,  0.921479570000000,  0.214583640000000 ]
    mass: 15.999400
    reduced_to: 19
  - symbol: O  # 20
    coordinates: [  0.421479570000000,  0.134387520000000,  0.714583640000000 ]
    mass: 15.999400
    reduced_to: 20
  - symbol: O  # 21
    coordinates: [  0.839687080000000,  0.971027350000000,  0.850079160000000 ]
    mass: 15.999400
    reduced_to: 21
  - symbol: O  # 22
    coordinates: [  0.865612480000000,  0.421479570000000,  0.285416360000000 ]
    mass: 15.999400
    reduced_to: 22
  - symbol: O  # 23
    coordinates: [  0.134387520000000,  0.578520430000000,  0.285416360000000 ]
    mass: 15.999400
    reduced_to: 23
  - symbol: O  # 24
    coordinates: [  0.078520430000000,  0.365612480000000,  0.785416360000000 ]
    mass: 15.999400
    reduced_to: 24
  - symbol: O  # 25
    coordinates: [  0.339687080000000,  0.471027350000000,  0.649920840000000 ]
    mass: 15.999400
    reduced_to: 25
  - symbol: O  # 26
    coordinates: [  0.528972650000000,  0.339687080000000,  0.350079160000000 ]
    mass: 15.999400
    reduced_to: 26
  - symbol: O  # 27
    coordinates: [  0.471027350000000,  0.660312920000000,  0.350079160000000 ]
    mass: 15.999400
    reduced_to: 27
  - symbol: O  # 28
    coordinates: [  0.160312920000000,  0.028972650000000,  0.850079160000000 ]
    mass: 15.999400
    reduced_to: 28
  - symbol: O  # 29
    coordinates: [  0.660312920000000,  0.528972650000000,  0.649920840000000 ]
    mass: 15.999400
    reduced_to: 29
  - symbol: O  # 30
    coordinates: [  0.971027350000000,  0.160312920000000,  0.149920840000000 ]
    mass: 15.999400
    reduced_to: 30
  - symbol: O  # 31
    coordinates: [  0.028972650000000,  0.839687080000000,  0.149920840000000 ]
    mass: 15.999400
    reduced_to: 31
  - symbol: O  # 32
    coordinates: [  0.608051750000000,  0.301754740000000,  0.925173990000000 ]
    mass: 15.999400
    reduced_to: 32
  - symbol: I  # 33
    coordinates: [  0.787833590000000,  0.503468610000000,  0.867447870000000 ]
    mass: 126.904470
    reduced_to: 33
  - symbol: I  # 34
    coordinates: [  0.287833590000000,  0.003468610000000,  0.632552130000000 ]
    mass: 126.904470
    reduced_to: 34
  - symbol: I  # 35
    coordinates: [  0.496531390000000,  0.787833590000000,  0.132552130000000 ]
    mass: 126.904470
    reduced_to: 35
  - symbol: I  # 36
    coordinates: [  0.503468610000000,  0.212166410000000,  0.132552130000000 ]
    mass: 126.904470
    reduced_to: 36
  - symbol: I  # 37
    coordinates: [  0.712166410000000,  0.996531390000000,  0.632552130000000 ]
    mass: 126.904470
    reduced_to: 37
  - symbol: I  # 38
    coordinates: [  0.212166410000000,  0.496531390000000,  0.867447870000000 ]
    mass: 126.904470
    reduced_to: 38
  - symbol: I  # 39
    coordinates: [  0.003468610000000,  0.712166410000000,  0.367447870000000 ]
    mass: 126.904470
    reduced_to: 39
  - symbol: I  # 40
    coordinates: [  0.996531390000000,  0.287833590000000,  0.367447870000000 ]
    mass: 126.904470
    reduced_to: 40

supercell:
  lattice:
  - [     9.384924070000000,    -0.000000120000000,     0.000000000000000 ] # a
  - [     0.000000120000000,     9.384924070000000,     0.000000000000000 ] # b
  - [     0.000000000000000,     0.000000000000000,    12.475787860000001 ] # c
  points:
  - symbol: Li # 1
    coordinates: [  0.169028580000000,  0.994527070000000,  0.078584665000000 ]
    mass: 6.941000
    reduced_to: 1
  - symbol: Li # 2
    coordinates: [  0.169028580000000,  0.994527070000000,  0.578584665000000 ]
    mass: 6.941000
    reduced_to: 1
  - symbol: Li # 3
    coordinates: [  0.505472930000000,  0.669028580000000,  0.328584665000000 ]
    mass: 6.941000
    reduced_to: 3
  - symbol: Li # 4
    coordinates: [  0.505472930000000,  0.669028580000000,  0.828584665000000 ]
    mass: 6.941000
    reduced_to: 3
  - symbol: Li # 5
    coordinates: [  0.494527070000000,  0.330971420000000,  0.328584665000000 ]
    mass: 6.941000
    reduced_to: 5
  - symbol: Li # 6
    coordinates: [  0.494527070000000,  0.330971420000000,  0.828584665000000 ]
    mass: 6.941000
    reduced_to: 5
  - symbol: Li # 7
    coordinates: [  0.830971420000000,  0.005472930000000,  0.078584665000000 ]
    mass: 6.941000
    reduced_to: 7
  - symbol: Li # 8
    coordinates: [  0.830971420000000,  0.005472930000000,  0.578584665000000 ]
    mass: 6.941000
    reduced_to: 7
  - symbol: Li # 9
    coordinates: [  0.330971420000000,  0.505472930000000,  0.171415335000000 ]
    mass: 6.941000
    reduced_to: 9
  - symbol: Li # 10
    coordinates: [  0.330971420000000,  0.505472930000000,  0.671415335000000 ]
    mass: 6.941000
    reduced_to: 9
  - symbol: Li # 11
    coordinates: [  0.994527070000000,  0.830971420000000,  0.421415335000000 ]
    mass: 6.941000
    reduced_to: 11
  - symbol: Li # 12
    coordinates: [  0.994527070000000,  0.830971420000000,  0.921415335000000 ]
    mass: 6.941000
    reduced_to: 11
  - symbol: Li # 13
    coordinates: [  0.005472930000000,  0.169028580000000,  0.421415335000000 ]
    mass: 6.941000
    reduced_to: 13
  - symbol: Li # 14
    coordinates: [  0.005472930000000,  0.169028580000000,  0.921415335000000 ]
    mass: 6.941000
    reduced_to: 13
  - symbol: Li # 15
    coordinates: [  0.669028580000000,  0.494527070000000,  0.171415335000000 ]
    mass: 6.941000
    reduced_to: 15
  - symbol: Li # 16
    coordinates: [  0.669028580000000,  0.494527070000000,  0.671415335000000 ]
    mass: 6.941000
    reduced_to: 15
  - symbol: O  # 17
    coordinates: [  0.198245260000000,  0.108051750000000,  0.212586995000000 ]
    mass: 15.999400
    reduced_to: 17
  - symbol: O  # 18
    coordinates: [  0.198245260000000,  0.108051750000000,  0.712586995000000 ]
    mass: 15.999400
    reduced_to: 17
  - symbol: O  # 19
    coordinates: [  0.108051750000000,  0.801754740000000,  0.287413005000000 ]
    mass: 15.999400
    reduced_to: 19
  - symbol: O  # 20
    coordinates: [  0.108051750000000,  0.801754740000000,  0.787413005000000 ]
    mass: 15.999400
    reduced_to: 19
  - symbol: O  # 21
    coordinates: [  0.698245260000000,  0.608051750000000,  0.037413005000000 ]
    mass: 15.999400
    reduced_to: 21
  - symbol: O  # 22
    coordinates: [  0.698245260000000,  0.608051750000000,  0.537413005000000 ]
    mass: 15.999400
    reduced_to: 21
  - symbol: O  # 23
    coordinates: [  0.301754740000000,  0.391948250000000,  0.037413005000000 ]
    mass: 15.999400
    reduced_to: 23
  - symbol: O  # 24
    coordinates: [  0.301754740000000,  0.391948250000000,  0.537413005000000 ]
    mass: 15.999400
    reduced_to: 23
  - symbol: O  # 25
    coordinates: [  0.891948250000000,  0.198245260000000,  0.287413005000000 ]
    mass: 15.999400
    reduced_to: 25
  - symbol: O  # 26
    coordinates: [  0.891948250000000,  0.198245260000000,  0.787413005000000 ]
    mass: 15.999400
    reduced_to: 25
  - symbol: O  # 27
    coordinates: [  0.391948250000000,  0.698245260000000,  0.462586995000000 ]
    mass: 15.999400
    reduced_to: 27
  - symbol: O  # 28
    coordinates: [  0.391948250000000,  0.698245260000000,  0.962586995000000 ]
    mass: 15.999400
    reduced_to: 27
  - symbol: O  # 29
    coordinates: [  0.801754740000000,  0.891948250000000,  0.212586995000000 ]
    mass: 15.999400
    reduced_to: 29
  - symbol: O  # 30
    coordinates: [  0.801754740000000,  0.891948250000000,  0.712586995000000 ]
    mass: 15.999400
    reduced_to: 29
  - symbol: O  # 31
    coordinates: [  0.921479570000000,  0.634387520000000,  0.392708180000000 ]
    mass: 15.999400
    reduced_to: 31
  - symbol: O  # 32
    coordinates: [  0.921479570000000,  0.634387520000000,  0.892708180000000 ]
    mass: 15.999400
    reduced_to: 31
  - symbol: O  # 33
    coordinates: [  0.578520430000000,  0.865612480000000,  0.357291820000000 ]
    mass: 15.999400
    reduced_to: 33
  - symbol: O  # 34
    coordinates: [  0.578520430000000,  0.865612480000000,  0.857291820000000 ]
    mass: 15.999400
    reduced_to: 33
  - symbol: O  # 35
    coordinates: [  0.634387520000000,  0.078520430000000,  0.107291820000000 ]
    mass: 15.999400
    reduced_to: 35
  - symbol: O  # 36
    coordinates: [  0.634387520000000,  0.078520430000000,  0.607291820000000 ]
    mass: 15.999400
    reduced_to: 35
  - symbol: O  # 37
    coordinates: [  0.365612480000000,  0.921479570000000,  0.107291820000000 ]
    mass: 15.999400
    reduced_to: 37
  - symbol: O  # 38
    coordinates: [  0.365612480000000,  0.921479570000000,  0.607291820000000 ]
    mass: 15.999400
    reduced_to: 37
  - symbol: O  # 39
    coordinates: [  0.421479570000000,  0.134387520000000,  0.357291820000000 ]
    mass: 15.999400
    reduced_to: 39
  - symbol: O  # 40
    coordinates: [  0.421479570000000,  0.134387520000000,  0.857291820000000 ]
    mass: 15.999400
    reduced_to: 39
  - symbol: O  # 41
    coordinates: [  0.839687080000000,  0.971027350000000,  0.425039580000000 ]
    mass: 15.999400
    reduced_to: 41
  - symbol: O  # 42
    coordinates: [  0.839687080000000,  0.971027350000000,  0.925039580000000 ]
    mass: 15.999400
    reduced_to: 41
  - symbol: O  # 43
    coordinates: [  0.865612480000000,  0.421479570000000,  0.142708180000000 ]
    mass: 15.999400
    reduced_to: 43
  - symbol: O  # 44
    coordinates: [  0.865612480000000,  0.421479570000000,  0.642708180000000 ]
    mass: 15.999400
    reduced_to: 43
  - symbol: O  # 45
    coordinates: [  0.134387520000000,  0.578520430000000,  0.142708180000000 ]
    mass: 15.999400
    reduced_to: 45
  - symbol: O  # 46
    coordinates: [  0.134387520000000,  0.578520430000000,  0.642708180000000 ]
    mass: 15.999400
    reduced_to: 45
  - symbol: O  # 47
    coordinates: [  0.078520430000000,  0.365612480000000,  0.392708180000000 ]
    mass: 15.999400
    reduced_to: 47
  - symbol: O  # 48
    coordinates: [  0.078520430000000,  0.365612480000000,  0.892708180000000 ]
    mass: 15.999400
    reduced_to: 47
  - symbol: O  # 49
    coordinates: [  0.339687080000000,  0.471027350000000,  0.324960420000000 ]
    mass: 15.999400
    reduced_to: 49
  - symbol: O  # 50
    coordinates: [  0.339687080000000,  0.471027350000000,  0.824960420000000 ]
    mass: 15.999400
    reduced_to: 49
  - symbol: O  # 51
    coordinates: [  0.528972650000000,  0.339687080000000,  0.175039580000000 ]
    mass: 15.999400
    reduced_to: 51
  - symbol: O  # 52
    coordinates: [  0.528972650000000,  0.339687080000000,  0.675039580000000 ]
    mass: 15.999400
    reduced_to: 51
  - symbol: O  # 53
    coordinates: [  0.471027350000000,  0.660312920000000,  0.175039580000000 ]
    mass: 15.999400
    reduced_to: 53
  - symbol: O  # 54
    coordinates: [  0.471027350000000,  0.660312920000000,  0.675039580000000 ]
    mass: 15.999400
    reduced_to: 53
  - symbol: O  # 55
    coordinates: [  0.160312920000000,  0.028972650000000,  0.425039580000000 ]
    mass: 15.999400
    reduced_to: 55
  - symbol: O  # 56
    coordinates: [  0.160312920000000,  0.028972650000000,  0.925039580000000 ]
    mass: 15.999400
    reduced_to: 55
  - symbol: O  # 57
    coordinates: [  0.660312920000000,  0.528972650000000,  0.324960420000000 ]
    mass: 15.999400
    reduced_to: 57
  - symbol: O  # 58
    coordinates: [  0.660312920000000,  0.528972650000000,  0.824960420000000 ]
    mass: 15.999400
    reduced_to: 57
  - symbol: O  # 59
    coordinates: [  0.971027350000000,  0.160312920000000,  0.074960420000000 ]
    mass: 15.999400
    reduced_to: 59
  - symbol: O  # 60
    coordinates: [  0.971027350000000,  0.160312920000000,  0.574960420000000 ]
    mass: 15.999400
    reduced_to: 59
  - symbol: O  # 61
    coordinates: [  0.028972650000000,  0.839687080000000,  0.074960420000000 ]
    mass: 15.999400
    reduced_to: 61
  - symbol: O  # 62
    coordinates: [  0.028972650000000,  0.839687080000000,  0.574960420000000 ]
    mass: 15.999400
    reduced_to: 61
  - symbol: O  # 63
    coordinates: [  0.608051750000000,  0.301754740000000,  0.462586995000000 ]
    mass: 15.999400
    reduced_to: 63
  - symbol: O  # 64
    coordinates: [  0.608051750000000,  0.301754740000000,  0.962586995000000 ]
    mass: 15.999400
    reduced_to: 63
  - symbol: I  # 65
    coordinates: [  0.787833590000000,  0.503468610000000,  0.433723935000000 ]
    mass: 126.904470
    reduced_to: 65
  - symbol: I  # 66
    coordinates: [  0.787833590000000,  0.503468610000000,  0.933723935000000 ]
    mass: 126.904470
    reduced_to: 65
  - symbol: I  # 67
    coordinates: [  0.287833590000000,  0.003468610000000,  0.316276065000000 ]
    mass: 126.904470
    reduced_to: 67
  - symbol: I  # 68
    coordinates: [  0.287833590000000,  0.003468610000000,  0.816276065000000 ]
    mass: 126.904470
    reduced_to: 67
  - symbol: I  # 69
    coordinates: [  0.496531390000000,  0.787833590000000,  0.066276065000000 ]
    mass: 126.904470
    reduced_to: 69
  - symbol: I  # 70
    coordinates: [  0.496531390000000,  0.787833590000000,  0.566276065000000 ]
    mass: 126.904470
    reduced_to: 69
  - symbol: I  # 71
    coordinates: [  0.503468610000000,  0.212166410000000,  0.066276065000000 ]
    mass: 126.904470
    reduced_to: 71
  - symbol: I  # 72
    coordinates: [  0.503468610000000,  0.212166410000000,  0.566276065000000 ]
    mass: 126.904470
    reduced_to: 71
  - symbol: I  # 73
    coordinates: [  0.712166410000000,  0.996531390000000,  0.316276065000000 ]
    mass: 126.904470
    reduced_to: 73
  - symbol: I  # 74
    coordinates: [  0.712166410000000,  0.996531390000000,  0.816276065000000 ]
    mass: 126.904470
    reduced_to: 73
  - symbol: I  # 75
    coordinates: [  0.212166410000000,  0.496531390000000,  0.433723935000000 ]
    mass: 126.904470
    reduced_to: 75
  - symbol: I  # 76
    coordinates: [  0.212166410000000,  0.496531390000000,  0.933723935000000 ]
    mass: 126.904470
    reduced_to: 75
  - symbol: I  # 77
    coordinates: [  0.003468610000000,  0.712166410000000,  0.183723935000000 ]
    mass: 126.904470
    reduced_to: 77
  - symbol: I  # 78
    coordinates: [  0.003468610000000,  0.712166410000000,  0.683723935000000 ]
    mass: 126.904470
    reduced_to: 77
  - symbol: I  # 79
    coordinates: [  0.996531390000000,  0.287833590000000,  0.183723935000000 ]
    mass: 126.904470
    reduced_to: 79
  - symbol: I  # 80
    coordinates: [  0.996531390000000,  0.287833590000000,  0.683723935000000 ]
    mass: 126.904470
    reduced_to: 79

displacements:
- atom:    1
  displacement:
    [   0.0100000000000000, -0.0000000001278646,  0.0000000000000000 ]
  forces:
  - [  -0.0332254400000000, -0.0099159200000000, -0.0068678100000000 ]
  - [  -0.0005538800000000,  0.0000219600000000, -0.0001402000000000 ]
  - [   0.0001751200000000, -0.0006142600000000,  0.0007235100000000 ]
  - [   0.0002436500000000, -0.0006293600000000, -0.0008157700000000 ]
  - [   0.0001275100000000,  0.0006297600000000,  0.0001657400000000 ]
  - [   0.0001269800000000,  0.0006133200000000, -0.0004021700000000 ]
  - [   0.0048725500000000, -0.0001004500000000,  0.0002238200000000 ]
  - [   0.0005165700000000, -0.0000918400000000, -0.0003043800000000 ]
  - [  -0.0006656000000000, -0.0004439500000000,  0.0003902900000000 ]
  - [   0.0005574900000000, -0.0000864900000000, -0.0000404100000000 ]
  - [   0.0001201600000000,  0.0004000200000000, -0.0003825600000000 ]
  - [   0.0005987700000000,  0.0017667700000000,  0.0025804800000000 ]
  - [  -0.0004599400000000, -0.0004006200000000, -0.0002482100000000 ]
  - [  -0.0000330600000000, -0.0017663000000000,  0.0027214200000000 ]
  - [   0.0006226100000000, -0.0002622300000000,  0.0003650500000000 ]
  - [  -0.0005379800000000,  0.0000913500000000, -0.0000134600000000 ]
  - [   0.0039574500000000,  0.0006579000000000,  0.0010136100000000 ]
  - [   0.0005265700000000,  0.0001895700000000,  0.0007131600000000 ]
  - [   0.0024149000000000,  0.0002520200000000,  0.0017019200000000 ]
  - [   0.0007700100000000, -0.0001600900000000, -0.0004034100000000 ]
  - [  -0.0016392100000000,  0.0018475900000000, -0.0000048900000000 ]
  - [   0.0000554900000000,  0.0005388400000000, -0.0002381200000000 ]
  - [   0.0005706300000000, -0.0009654100000000, -0.0005047700000000 ]
  - [  -0.0001301400000000, -0.0005479500000000, -0.0003268900000000 ]
  - [  -0.0012098500000000, -0.0000039300000000,  0.0013014600000000 ]
  - [  -0.0004284100000000,  0.0003878900000000, -0.0005762800000000 ]
  - [  -0.0003459400000000,  0.0004740400000000,  0.0006029000000000 ]
  - [   0.0007836900000000,  0.0027942100000000,  0.0029854400000000 ]
  - [  -0.0022117100000000, -0.0000112800000000,  0.0013408500000000 ]
  - [  -0.0005674900000000, -0.0004746300000000,  0.0005017700000000 ]
  - [  -0.0008637700000000, -0.0000025600000000,  0.0008777400000000 ]
  - [  -0.0008487000000000, -0.0001671600000000, -0.0003443700000000 ]
  - [  -0.0006893800000000, -0.0013089400000000,  0.0001651100000000 ]
  - [  -0.0008422300000000, -0.0015553300000000,  0.0011711600000000 ]
  - [  -0.0012385300000000, -0.0003592500000000, -0.0002362700000000 ]
  - [   0.0005916800000000,  0.0002952500000000,  0.0001879800000000 ]
  - [   0.0082450300000000, -0.0027533800000000,  0.0023036400000000 ]
  - [  -0.0007703300000000, -0.0002249900000000,  0.0001972800000000 ]
  - [  -0.0001913900000000,  0.0005728100000000,  0.0001902400000000 ]
  - [   0.0002007700000000,  0.0009459500000000,  0.0010835100000000 ]
  - [   0.0005608500000000,  0.0000588900000000,  0.0009417700000000 ]
  - [  -0.0007664200000000,  0.0002797000000000, -0.0008066800000000 ]
  - [  -0.0020756500000000,  0.0017300300000000, -0.0001606400000000 ]
  - [  -0.0005387300000000, -0.0003266400000000,  0.0000019100000000 ]
  - [   0.0030618500000000, -0.0018171300000000, -0.0004390600000000 ]
  - [   0.0006153500000000,  0.0003306600000000,  0.0000349300000000 ]
  - [   0.0008358300000000, -0.0002974500000000,  0.0005545600000000 ]
  - [   0.0009278300000000,  0.0001500300000000, -0.0002281000000000 ]
  - [   0.0012931800000000,  0.0001218400000000, -0.0009441600000000 ]
  - [   0.0011824500000000,  0.0002829400000000, -0.0004955700000000 ]
  - [  -0.0006136400000000,  0.0004808500000000,  0.0001274400000000 ]
  - [  -0.0001272000000000,  0.0007965400000000,  0.0008933600000000 ]
  - [  -0.0003935800000000,  0.0025023200000000, -0.0013983900000000 ]
  - [   0.0000308600000000, -0.0007997700000000,  0.0009147300000000 ]
  - [   0.0001098000000000, -0.0001497500000000, -0.0001845100000000 ]
  - [   0.0022664800000000, -0.0007824500000000,  0.0034051700000000 ]
  - [  -0.0013579400000000, -0.0000208900000000, -0.0009061000000000 ]
  - [  -0.0010479800000000, -0.0000804000000000, -0.0005701000000000 ]
  - [  -0.0009582600000000,  0.0063595400000000,  0.0021857400000000 ]
  - [   0.0002368400000000, -0.0007823300000000, -0.0005199100000000 ]
  - [   0.0088864200000000,  0.0067018100000000,  0.0019827200000000 ]
  - [  -0.0000955500000000,  0.0007451600000000, -0.0004194800000000 ]
  - [   0.0001793300000000, -0.0004892700000000,  0.0006960900000000 ]
  - [  -0.0005661400000000, -0.0008270300000000,  0.0009007300000000 ]
  - [   0.0015300000000000,  0.0002361400000000, -0.0000160600000000 ]
  - [   0.0019952800000000,  0.0000948300000000,  0.0006893000000000 ]
  - [  -0.0010462600000000, -0.0001363800000000,  0.0051109600000000 ]
  - [   0.0005539400000000, -0.0005085500000000, -0.0051967800000000 ]
  - [   0.0062894500000000, -0.0074169100000000, -0.0036080700000000 ]
  - [   0.0005097100000000,  0.0004048800000000, -0.0009222900000000 ]
  - [   0.0030740800000000,  0.0029749800000000, -0.0006986900000000 ]
  - [  -0.0000919900000000, -0.0004028200000000, -0.0008656700000000 ]
  - [   0.0018758800000000,  0.0007525600000000, -0.0011180700000000 ]
  - [   0.0014103400000000,  0.0007779200000000, -0.0001462500000000 ]
  - [  -0.0015031400000000,  0.0000811700000000,  0.0001689400000000 ]
  - [  -0.0028787300000000, -0.0008516500000000,  0.0007785600000000 ]
  - [  -0.0005582100000000,  0.0049470500000000, -0.0056187600000000 ]
  - [  -0.0002043100000000, -0.0004901000000000,  0.0001869500000000 ]
  - [  -0.0011306400000000, -0.0048783900000000, -0.0062434500000000 ]
  - [  -0.0000960000000000,  0.0006151000000000,  0.0002748200000000 ]
- atom:    1
  displacement:
    [  -0.0100000000000000,  0.0000000001278646,  0.0000000000000000 ]
  forces:
  - [   0.0315865100000000,  0.0110193300000000,  0.0063659700000000 ]
  - [  -0.0005466300000000,  0.0001322900000000, -0.0001520900000000 ]
  - [  -0.0003266300000000, -0.0004891700000000, -0.0010138000000000 ]
  - [  -0.0003946200000000, -0.0004736700000000,  0.0005189200000000 ]
  - [   0.0000228200000000,  0.0004723300000000, -0.0004563600000000 ]
  - [   0.0000235600000000,  0.0004874900000000,  0.0001069700000000 ]
  - [  -0.0038224400000000, -0.0000495500000000, -0.0005187800000000 ]
  - [   0.0005849800000000, -0.0000589800000000,  0.0000132100000000 ]
  - [   0.0017664400000000,  0.0002909300000000, -0.0000955900000000 ]
  - [   0.0005467700000000, -0.0000649500000000,  0.0003334500000000 ]
  - [   0.0000351300000000,  0.0007019100000000,  0.0006750400000000 ]
  - [  -0.0004348000000000, -0.0006733700000000, -0.0022971600000000 ]
  - [   0.0003131000000000, -0.0007031200000000,  0.0005425200000000 ]
  - [  -0.0001040000000000,  0.0006721600000000, -0.0024408800000000 ]
  - [  -0.0017241100000000,  0.0004146500000000, -0.0000709000000000 ]
  - [  -0.0005657200000000,  0.0000598600000000,  0.0003064900000000 ]